                               Psi4 1.2rc3.dev135

  ==> Input File <==

--------------------------------------------------------------------------
memory 10 Gb
molecule be2 {
0 1
Be  0.0  0.0  0.0
Be  0.0  0.0  4.5
units angstrom
}

basis {
assign custombasis
[custombasis]
cartesian
Be     0
S   6   1.00
      0.1264585690e+04       0.1944757590e-02
      0.1899368060e+03       0.1483505200e-01
      0.4315908900e+02       0.7209054629e-01
      0.1209866270e+02       0.2371541500e+00
      0.3806323220e+01       0.4691986519e+00
      0.1272890300e+01       0.3565202279e+00
S    3   1.00
      0.3196463098e+01      -0.1126487285e+00       0.5598019980e-01
      0.7478133038e+00      -0.2295064079e+00       0.2615506110e+00
      0.2199663302e+00       0.1186916764e+01       0.7939723389e+00
S    1   1.00
      0.8230990070e-01       0.1000000000e+01       0.1000000000e+01
****
}

set freeze_core False
set PRINT_BASIS True
set PUREAM False
set E_CONVERGENCE 1e-14
energy('fci')

--------------------------------------------------------------------------

    Molecular point group: d2h

    Geometry (in Angstrom), charge = 0, multiplicity = 1:

       Center              X                  Y                   Z               Mass
    ------------   -----------------  -----------------  -----------------  -----------------
         BE           0.000000000000     0.000000000000    -2.250000000000     9.012182201000
         BE           0.000000000000     0.000000000000     2.250000000000     9.012182201000

  Charge       = 0
  Multiplicity = 1
  Basis Set: ANONYMOUSB94F1CD9
    Blend: CUSTOMBASIS

    Orbital Energies [Eh]
    ---------------------

    Doubly Occupied:

       1B1u   -4.706483     1Ag    -4.706481     2Ag    -0.308868
       2B1u   -0.293631

  @RHF Final Energy:   -29.13310664025903
    Total Energy =                        -29.1331066402590331

  Dipole Moment: [D]
     X:     0.0000      Y:     0.0000      Z:     0.0000     Total:     0.0000

   ==> Energetics <==

    SCF energy =          -29.133106640259033
    Total CI energy =     -29.137795837795093

   ==> FCI root 0 information <==

    FCI Root 0 energy =   -29.137795837795093

   The 20 most important determinants:

    *   1    0.997663  (    0,    0)  1AgX 2AgX 1B1uX 2B1uX
    *   2   -0.028033  (    9,    9)  1AgX 2AgX 1B1uX 3AgX
    *   3   -0.025449  (    1,    1)  1AgX 1B1uX 2B1uX 3AgX
    *   4    0.023877  (    9,   11)  1AgX 2AgA 1B1uX 2B1uB 3AgA 3B1uB
    *   5    0.023877  (   11,    9)  1AgX 2AgB 1B1uX 2B1uA 3AgB 3B1uA
    *   6    0.023669  (    1,    3)  1AgX 2AgB 1B1uX 2B1uA 3AgA 3B1uB
    *   7    0.023669  (    3,    1)  1AgX 2AgA 1B1uX 2B1uB 3AgB 3B1uA
    *   8   -0.022895  (    3,    3)  1AgX 2AgX 1B1uX 3B1uX
    *   9   -0.020522  (   11,   11)  1AgX 1B1uX 2B1uX 3B1uX
    *  10    0.002295  (    5,    5)  1AgX 1B1uX 3AgX 3B1uX
    *  11   -0.002198  (    0,    1)  1AgX 2AgA 1B1uX 2B1uX 3AgB
    *  12   -0.002198  (    1,    0)  1AgX 2AgB 1B1uX 2B1uX 3AgA
    *  13    0.001490  (    0,    3)  1AgX 2AgX 1B1uX 2B1uA 3B1uB
    *  14    0.001490  (    3,    0)  1AgX 2AgX 1B1uX 2B1uB 3B1uA
    *  15   -0.000889  (   10,   10)  1AgX 2AgX 2B1uX 3AgX
    *  16   -0.000889  (    2,    2)  2AgX 1B1uX 2B1uX 3AgX
    *  17    0.000852  (   10,   12)  1AgA 2AgX 1B1uB 2B1uX 3AgA 3B1uB
    *  18    0.000852  (   12,   10)  1AgB 2AgX 1B1uA 2B1uX 3AgB 3B1uA
    *  19    0.000852  (    2,    4)  1AgB 2AgX 1B1uA 2B1uX 3AgA 3B1uB
    *  20    0.000852  (    4,    2)  1AgA 2AgX 1B1uB 2B1uX 3AgB 3B1uA

*** Psi4 exiting successfully. Buy a developer a beer!
